    4
** Geometry step: 277, Lattice step: 40
    C     -0.00621195      0.00359382      1.61316479      3.99784548
    C      0.00621193     -0.00359381      4.83949388      3.99784548
    C     -0.00621216      1.43049465      1.61316450      4.00215452
    C      1.24194792      0.70985402      4.83949397      4.00215452
