|===============================================================================
|
|  DFTB+ release 20.2.1
|
|  Copyright (C) 2006 - 2020  DFTB+ developers group
|
|===============================================================================
|
|  When publishing results obtained with DFTB+, please cite the following
|  reference:
|
|  * DFTB+, a software package for efficient approximate density functional
|    theory based atomistic simulations, J. Chem. Phys. 152, 124101 (2020).
|    [doi: 10.1063/1.5143190]
|
|  You should also cite additional publications crediting the parametrization
|  data you use. Please consult the documentation of the SK-files for the
|  references.
|
|===============================================================================

Reading input file 'dftb_in.hsd'
Parser version: 9

--------------------------------------------------------------------------------
Reading SK-files:
Done.


Processed input in HSD format written to 'dftb_pin.hsd'

Starting initialization...
--------------------------------------------------------------------------------
OpenMP threads:              12
Chosen random seed:          182734698
Mode:                        Conjugate gradient relaxation
Self consistent charges:     Yes
SCC-tolerance:                 0.100000E-04
Max. scc iterations:                    100
Ewald alpha parameter:         0.330138E+00
Shell resolved Hubbard:      No
Spin polarisation:           No
Nr. of up electrons:             8.000000
Nr. of down electrons:           8.000000
Periodic boundaries:         Yes
Lattice optimisation:        Yes
Pressure:                        0.000000
Electronic solver:           Relatively robust
Mixer:                       Broyden mixer
Mixing parameter:                  0.200000
Maximal SCC-cycles:                     100
Nr. of chrg. vec. in memory:              0
Nr. of moved atoms:                       4
Max. nr. of geometry steps:      2147483646
Force tolerance:               0.100000E-04
Electronic temperature:        0.100000E-07 H      0.272114E-06 eV
Initial charges:             Set automatically (system chrg:   0.000E+00)
Included shells:             C:  s, p
K-points and weights:           1:  0.000000  0.000000  0.000000     0.015625
                                2:  0.000000  0.000000  0.250000     0.031250
                                3:  0.000000  0.000000  0.500000     0.015625
                                4:  0.000000  0.250000  0.000000     0.031250
                                5:  0.000000  0.250000  0.250000     0.031250
                                6:  0.000000  0.250000  0.500000     0.031250
                                7:  0.000000  0.250000  0.750000     0.031250
                                8:  0.000000  0.500000  0.000000     0.015625
                                9:  0.000000  0.500000  0.250000     0.031250
                               10:  0.000000  0.500000  0.500000     0.015625
                               11:  0.250000  0.000000  0.000000     0.031250
                               12:  0.250000  0.000000  0.250000     0.031250
                               13:  0.250000  0.000000  0.500000     0.031250
                               14:  0.250000  0.000000  0.750000     0.031250
                               15:  0.250000  0.250000  0.000000     0.031250
                               16:  0.250000  0.250000  0.250000     0.031250
                               17:  0.250000  0.250000  0.500000     0.031250
                               18:  0.250000  0.250000  0.750000     0.031250
                               19:  0.250000  0.500000  0.000000     0.031250
                               20:  0.250000  0.500000  0.250000     0.031250
                               21:  0.250000  0.500000  0.500000     0.031250
                               22:  0.250000  0.500000  0.750000     0.031250
                               23:  0.250000  0.750000  0.000000     0.031250
                               24:  0.250000  0.750000  0.250000     0.031250
                               25:  0.250000  0.750000  0.500000     0.031250
                               26:  0.250000  0.750000  0.750000     0.031250
                               27:  0.500000  0.000000  0.000000     0.015625
                               28:  0.500000  0.000000  0.250000     0.031250
                               29:  0.500000  0.000000  0.500000     0.015625
                               30:  0.500000  0.250000  0.000000     0.031250
                               31:  0.500000  0.250000  0.250000     0.031250
                               32:  0.500000  0.250000  0.500000     0.031250
                               33:  0.500000  0.250000  0.750000     0.031250
                               34:  0.500000  0.500000  0.000000     0.015625
                               35:  0.500000  0.500000  0.250000     0.031250
                               36:  0.500000  0.500000  0.500000     0.015625

K-points in absolute space:     1:  0.000000  0.000000  0.000000
                                2:  0.000000  0.000000  0.019757
                                3:  0.000000  0.000000  0.039514
                                4:  0.000000  0.062199  0.000000
                                5:  0.000000  0.062199  0.019757
                                6:  0.000000  0.062199  0.039514
                                7:  0.000000  0.062199  0.059272
                                8:  0.000000  0.124398  0.000000
                                9:  0.000000  0.124398  0.019757
                               10:  0.000000  0.124398  0.039514
                               11:  0.053866  0.031099  0.000000
                               12:  0.053866  0.031099  0.019757
                               13:  0.053866  0.031099  0.039514
                               14:  0.053866  0.031099  0.059272
                               15:  0.053866  0.093298  0.000000
                               16:  0.053866  0.093298  0.019757
                               17:  0.053866  0.093298  0.039514
                               18:  0.053866  0.093298  0.059272
                               19:  0.053866  0.155497  0.000000
                               20:  0.053866  0.155497  0.019757
                               21:  0.053866  0.155497  0.039514
                               22:  0.053866  0.155497  0.059272
                               23:  0.053866  0.217696  0.000000
                               24:  0.053866  0.217696  0.019757
                               25:  0.053866  0.217696  0.039514
                               26:  0.053866  0.217696  0.059272
                               27:  0.107732  0.062199  0.000000
                               28:  0.107732  0.062199  0.019757
                               29:  0.107732  0.062199  0.039514
                               30:  0.107732  0.124398  0.000000
                               31:  0.107732  0.124398  0.019757
                               32:  0.107732  0.124398  0.039514
                               33:  0.107732  0.124398  0.059272
                               34:  0.107732  0.186596  0.000000
                               35:  0.107732  0.186596  0.019757
                               36:  0.107732  0.186596  0.039514

Using DFT-D3 dispersion corrections
Full 3rd order correction    Yes
Extra options:
                             Mulliken analysis
Force type                   original

--------------------------------------------------------------------------------

***  Geometry step: 0, Lattice step: 0

 iSCC Total electronic   Diff electronic      SCC error    
    1    0.00000000E+00    0.00000000E+00    0.13945198E-02
    2   -0.70057736E+01   -0.70057736E+01    0.10648712E-02
    3   -0.70057736E+01   -0.26038025E-08    0.27429339E-08

Total Energy:                       -6.8956103406 H         -187.6391 eV
Extrapolated to 0K:                 -6.8956103406 H         -187.6391 eV
Total Mermin free energy:           -6.8956103406 H         -187.6391 eV
Force related energy:               -6.8956103406 H         -187.6391 eV

Volume:                              0.236047E+03 au^3   0.349786E+02 A^3
Pressure:                            0.205739E-03 au     0.605304E+10 Pa
Maximal force component:             0.118720E-07
Maximal Lattice force component:     0.192858E-01 au
>> Charges saved for restart in charges.bin

--------------------------------------------------------------------------------

***  Geometry step: 1, Lattice step: 0

 iSCC Total electronic   Diff electronic      SCC error    
    1   -0.70057736E+01    0.00000000E+00    0.27429339E-08

Total Energy:                       -6.8956103406 H         -187.6391 eV
Extrapolated to 0K:                 -6.8956103406 H         -187.6391 eV
Total Mermin free energy:           -6.8956103406 H         -187.6391 eV
Force related energy:               -6.8956103406 H         -187.6391 eV

Volume:                              0.236047E+03 au^3   0.349786E+02 A^3
Pressure:                            0.205739E-03 au     0.605304E+10 Pa
Maximal force component:             0.118720E-07
Maximal Lattice force component:     0.192858E-01 au
>> Charges saved for restart in charges.bin

--------------------------------------------------------------------------------

***  Geometry step: 2, Lattice step: 1

 iSCC Total electronic   Diff electronic      SCC error    
    1   -0.70057736E+01    0.00000000E+00    0.18924358E-03
    2   -0.69537696E+01    0.52003992E-01    0.14332771E-03
    3   -0.69537696E+01   -0.62158279E-10    0.13176127E-10

Total Energy:                       -6.8914509124 H         -187.5259 eV
Extrapolated to 0K:                 -6.8914509124 H         -187.5259 eV
Total Mermin free energy:           -6.8914509124 H         -187.5259 eV
Force related energy:               -6.8914509124 H         -187.5259 eV

Volume:                              0.247403E+03 au^3   0.366614E+02 A^3
Pressure:                           -0.544547E-03 au    -0.160211E+11 Pa
Maximal force component:             0.589483E-02
Maximal Lattice force component:     0.585877E-01 au
>> Charges saved for restart in charges.bin

--------------------------------------------------------------------------------

***  Geometry step: 3, Lattice step: 1

 iSCC Total electronic   Diff electronic      SCC error    
    1   -0.69537696E+01    0.00000000E+00    0.79218395E-05

Total Energy:                       -6.8896728753 H         -187.4775 eV
Extrapolated to 0K:                 -6.8896728753 H         -187.4775 eV
Total Mermin free energy:           -6.8896728753 H         -187.4775 eV
Force related energy:               -6.8896728753 H         -187.4775 eV

Volume:                              0.247403E+03 au^3   0.366614E+02 A^3
Pressure:                           -0.545121E-03 au    -0.160380E+11 Pa
Maximal force component:             0.279203E-01
Maximal Lattice force component:     0.540014E-01 au
>> Charges saved for restart in charges.bin

--------------------------------------------------------------------------------

***  Geometry step: 4, Lattice step: 1

 iSCC Total electronic   Diff electronic      SCC error    
    1   -0.69515389E+01    0.00000000E+00    0.18092571E-05

Total Energy:                       -6.8915274185 H         -187.5280 eV
Extrapolated to 0K:                 -6.8915274185 H         -187.5280 eV
Total Mermin free energy:           -6.8915274185 H         -187.5280 eV
Force related energy:               -6.8915274185 H         -187.5280 eV

Volume:                              0.247403E+03 au^3   0.366614E+02 A^3
Pressure:                           -0.549051E-03 au    -0.161536E+11 Pa
Maximal force component:             0.277304E-03
Maximal Lattice force component:     0.581447E-01 au
>> Charges saved for restart in charges.bin

--------------------------------------------------------------------------------

***  Geometry step: 5, Lattice step: 1

 iSCC Total electronic   Diff electronic      SCC error    
    1   -0.69533495E+01    0.00000000E+00    0.48191154E-06

Total Energy:                       -6.8914735803 H         -187.5265 eV
Extrapolated to 0K:                 -6.8914735803 H         -187.5265 eV
Total Mermin free energy:           -6.8914735803 H         -187.5265 eV
Force related energy:               -6.8914735803 H         -187.5265 eV

Volume:                              0.247403E+03 au^3   0.366614E+02 A^3
Pressure:                           -0.545360E-03 au    -0.160450E+11 Pa
Maximal force component:             0.493923E-02
Maximal Lattice force component:     0.585298E-01 au
>> Charges saved for restart in charges.bin

--------------------------------------------------------------------------------

***  Geometry step: 6, Lattice step: 1

 iSCC Total electronic   Diff electronic      SCC error    
    1   -0.69537036E+01    0.00000000E+00    0.17602860E-05

Total Energy:                       -6.8915275760 H         -187.5280 eV
Extrapolated to 0K:                 -6.8915275760 H         -187.5280 eV
Total Mermin free energy:           -6.8915275760 H         -187.5280 eV
Force related energy:               -6.8915275760 H         -187.5280 eV

Volume:                              0.247403E+03 au^3   0.366614E+02 A^3
Pressure:                           -0.548895E-03 au    -0.161490E+11 Pa
Maximal force component:             0.141426E-04
Maximal Lattice force component:     0.581669E-01 au
>> Charges saved for restart in charges.bin

--------------------------------------------------------------------------------

***  Geometry step: 7, Lattice step: 1

 iSCC Total electronic   Diff electronic      SCC error    
    1   -0.69533672E+01    0.00000000E+00    0.17230533E-05

Total Energy:                       -6.8915274863 H         -187.5280 eV
Extrapolated to 0K:                 -6.8915274863 H         -187.5280 eV
Total Mermin free energy:           -6.8915274863 H         -187.5280 eV
Force related energy:               -6.8915274863 H         -187.5280 eV

Volume:                              0.247403E+03 au^3   0.366614E+02 A^3
Pressure:                           -0.548764E-03 au    -0.161452E+11 Pa
Maximal force component:             0.215997E-03
Maximal Lattice force component:     0.581848E-01 au
>> Charges saved for restart in charges.bin

--------------------------------------------------------------------------------

***  Geometry step: 8, Lattice step: 1

 iSCC Total electronic   Diff electronic      SCC error    
    1   -0.69533818E+01    0.00000000E+00    0.17578478E-05

Total Energy:                       -6.8915275765 H         -187.5280 eV
Extrapolated to 0K:                 -6.8915275765 H         -187.5280 eV
Total Mermin free energy:           -6.8915275765 H         -187.5280 eV
Force related energy:               -6.8915275765 H         -187.5280 eV

Volume:                              0.247403E+03 au^3   0.366614E+02 A^3
Pressure:                           -0.548886E-03 au    -0.161488E+11 Pa
Maximal force component:             0.152778E-04
Maximal Lattice force component:     0.581681E-01 au
>> Charges saved for restart in charges.bin

--------------------------------------------------------------------------------

***  Geometry step: 9, Lattice step: 1

 iSCC Total electronic   Diff electronic      SCC error    
    1   -0.69533682E+01    0.00000000E+00    0.17581096E-05

Total Energy:                       -6.8915275772 H         -187.5280 eV
Extrapolated to 0K:                 -6.8915275772 H         -187.5280 eV
Total Mermin free energy:           -6.8915275772 H         -187.5280 eV
Force related energy:               -6.8915275772 H         -187.5280 eV

Volume:                              0.247403E+03 au^3   0.366614E+02 A^3
Pressure:                           -0.548886E-03 au    -0.161488E+11 Pa
Maximal force component:             0.153279E-04
Maximal Lattice force component:     0.581681E-01 au
>> Charges saved for restart in charges.bin

--------------------------------------------------------------------------------

***  Geometry step: 10, Lattice step: 1

 iSCC Total electronic   Diff electronic      SCC error    
    1   -0.69533682E+01    0.00000000E+00    0.17585394E-05

Total Energy:                       -6.8915275783 H         -187.5280 eV
Extrapolated to 0K:                 -6.8915275783 H         -187.5280 eV
Total Mermin free energy:           -6.8915275783 H         -187.5280 eV
Force related energy:               -6.8915275783 H         -187.5280 eV

Volume:                              0.247403E+03 au^3   0.366614E+02 A^3
Pressure:                           -0.548886E-03 au    -0.161488E+11 Pa
Maximal force component:             0.154090E-04
Maximal Lattice force component:     0.581681E-01 au
>> Charges saved for restart in charges.bin

--------------------------------------------------------------------------------

***  Geometry step: 11, Lattice step: 1

 iSCC Total electronic   Diff electronic      SCC error    
    1   -0.69533682E+01    0.00000000E+00    0.17592519E-05

Total Energy:                       -6.8915275801 H         -187.5280 eV
Extrapolated to 0K:                 -6.8915275801 H         -187.5280 eV
Total Mermin free energy:           -6.8915275801 H         -187.5280 eV
Force related energy:               -6.8915275801 H         -187.5280 eV

Volume:                              0.247403E+03 au^3   0.366614E+02 A^3
Pressure:                           -0.548886E-03 au    -0.161488E+11 Pa
Maximal force component:             0.155403E-04
Maximal Lattice force component:     0.581681E-01 au
>> Charges saved for restart in charges.bin

--------------------------------------------------------------------------------

***  Geometry step: 12, Lattice step: 1

 iSCC Total electronic   Diff electronic      SCC error    
    1   -0.69533682E+01    0.00000000E+00    0.17604487E-05

Total Energy:                       -6.8915275831 H         -187.5280 eV
Extrapolated to 0K:                 -6.8915275831 H         -187.5280 eV
Total Mermin free energy:           -6.8915275831 H         -187.5280 eV
Force related energy:               -6.8915275831 H         -187.5280 eV

Volume:                              0.247403E+03 au^3   0.366614E+02 A^3
Pressure:                           -0.548886E-03 au    -0.161488E+11 Pa
Maximal force component:             0.157527E-04
Maximal Lattice force component:     0.581681E-01 au
>> Charges saved for restart in charges.bin

--------------------------------------------------------------------------------

***  Geometry step: 13, Lattice step: 1

 iSCC Total electronic   Diff electronic      SCC error    
    1   -0.69533683E+01    0.00000000E+00    0.17625007E-05

Total Energy:                       -6.8915275878 H         -187.5280 eV
Extrapolated to 0K:                 -6.8915275878 H         -187.5280 eV
Total Mermin free energy:           -6.8915275878 H         -187.5280 eV
Force related energy:               -6.8915275878 H         -187.5280 eV

Volume:                              0.247403E+03 au^3   0.366614E+02 A^3
Pressure:                           -0.548885E-03 au    -0.161488E+11 Pa
Maximal force component:             0.160963E-04
Maximal Lattice force component:     0.581681E-01 au
>> Charges saved for restart in charges.bin

--------------------------------------------------------------------------------

***  Geometry step: 14, Lattice step: 1

 iSCC Total electronic   Diff electronic      SCC error    
    1   -0.69533683E+01    0.00000000E+00    0.17661234E-05

Total Energy:                       -6.8915275955 H         -187.5280 eV
Extrapolated to 0K:                 -6.8915275955 H         -187.5280 eV
Total Mermin free energy:           -6.8915275955 H         -187.5280 eV
Force related energy:               -6.8915275955 H         -187.5280 eV

Volume:                              0.247403E+03 au^3   0.366614E+02 A^3
Pressure:                           -0.548885E-03 au    -0.161488E+11 Pa
Maximal force component:             0.166523E-04
Maximal Lattice force component:     0.581681E-01 au
>> Charges saved for restart in charges.bin

--------------------------------------------------------------------------------

***  Geometry step: 15, Lattice step: 1

 iSCC Total electronic   Diff electronic      SCC error    
    1   -0.69533683E+01    0.00000000E+00    0.17727766E-05

Total Energy:                       -6.8915276078 H         -187.5280 eV
Extrapolated to 0K:                 -6.8915276078 H         -187.5280 eV
Total Mermin free energy:           -6.8915276078 H         -187.5280 eV
Force related energy:               -6.8915276078 H         -187.5280 eV

Volume:                              0.247403E+03 au^3   0.366614E+02 A^3
Pressure:                           -0.548885E-03 au    -0.161487E+11 Pa
Maximal force component:             0.175521E-04
Maximal Lattice force component:     0.581681E-01 au
>> Charges saved for restart in charges.bin

--------------------------------------------------------------------------------

***  Geometry step: 16, Lattice step: 1

 iSCC Total electronic   Diff electronic      SCC error    
    1   -0.69533684E+01    0.00000000E+00    0.17856152E-05

Total Energy:                       -6.8915276274 H         -187.5280 eV
Extrapolated to 0K:                 -6.8915276274 H         -187.5280 eV
Total Mermin free energy:           -6.8915276274 H         -187.5280 eV
Force related energy:               -6.8915276274 H         -187.5280 eV

Volume:                              0.247403E+03 au^3   0.366614E+02 A^3
Pressure:                           -0.548884E-03 au    -0.161487E+11 Pa
Maximal force component:             0.190078E-04
Maximal Lattice force component:     0.581681E-01 au
>> Charges saved for restart in charges.bin

--------------------------------------------------------------------------------

***  Geometry step: 17, Lattice step: 1

 iSCC Total electronic   Diff electronic      SCC error    
    1   -0.69533686E+01    0.00000000E+00    0.18118203E-05

Total Energy:                       -6.8915276587 H         -187.5280 eV
Extrapolated to 0K:                 -6.8915276587 H         -187.5280 eV
Total Mermin free energy:           -6.8915276587 H         -187.5280 eV
Force related energy:               -6.8915276587 H         -187.5280 eV

Volume:                              0.247403E+03 au^3   0.366614E+02 A^3
Pressure:                           -0.548883E-03 au    -0.161487E+11 Pa
Maximal force component:             0.213634E-04
Maximal Lattice force component:     0.581681E-01 au
>> Charges saved for restart in charges.bin

--------------------------------------------------------------------------------

***  Geometry step: 18, Lattice step: 1

 iSCC Total electronic   Diff electronic      SCC error    
    1   -0.69533688E+01    0.00000000E+00    0.18684549E-05

Total Energy:                       -6.8915277078 H         -187.5280 eV
Extrapolated to 0K:                 -6.8915277078 H         -187.5280 eV
Total Mermin free energy:           -6.8915277078 H         -187.5280 eV
Force related energy:               -6.8915277078 H         -187.5280 eV

Volume:                              0.247403E+03 au^3   0.366614E+02 A^3
Pressure:                           -0.548881E-03 au    -0.161486E+11 Pa
Maximal force component:             0.251750E-04
Maximal Lattice force component:     0.581682E-01 au
>> Charges saved for restart in charges.bin

--------------------------------------------------------------------------------

***  Geometry step: 19, Lattice step: 1

 iSCC Total electronic   Diff electronic      SCC error    
    1   -0.69533691E+01    0.00000000E+00    0.24595711E-05

Total Energy:                       -6.8915187245 H         -187.5278 eV
Extrapolated to 0K:                 -6.8915187245 H         -187.5278 eV
Total Mermin free energy:           -6.8915187245 H         -187.5278 eV
Force related energy:               -6.8915187245 H         -187.5278 eV

Volume:                              0.247403E+03 au^3   0.366614E+02 A^3
Pressure:                           -0.550001E-03 au    -0.161816E+11 Pa
Maximal force component:             0.201075E-02
Maximal Lattice force component:     0.579869E-01 au
>> Charges saved for restart in charges.bin

--------------------------------------------------------------------------------

***  Geometry step: 20, Lattice step: 1

 iSCC Total electronic   Diff electronic      SCC error    
    1   -0.69532327E+01    0.00000000E+00    0.18771341E-05

Total Energy:                       -6.8915277098 H         -187.5280 eV
Extrapolated to 0K:                 -6.8915277098 H         -187.5280 eV
Total Mermin free energy:           -6.8915277098 H         -187.5280 eV
Force related energy:               -6.8915277098 H         -187.5280 eV

Volume:                              0.247403E+03 au^3   0.366614E+02 A^3
Pressure:                           -0.548899E-03 au    -0.161492E+11 Pa
Maximal force component:             0.188497E-04
Maximal Lattice force component:     0.581656E-01 au
>> Charges saved for restart in charges.bin

--------------------------------------------------------------------------------

***  Geometry step: 21, Lattice step: 1

 iSCC Total electronic   Diff electronic      SCC error    
    1   -0.69533671E+01    0.00000000E+00    0.18816020E-05

Total Energy:                       -6.8915277110 H         -187.5280 eV
Extrapolated to 0K:                 -6.8915277110 H         -187.5280 eV
Total Mermin free energy:           -6.8915277110 H         -187.5280 eV
Force related energy:               -6.8915277110 H         -187.5280 eV

Volume:                              0.247403E+03 au^3   0.366614E+02 A^3
Pressure:                           -0.548904E-03 au    -0.161493E+11 Pa
Maximal force component:             0.276781E-04
Maximal Lattice force component:     0.581648E-01 au
>> Charges saved for restart in charges.bin

--------------------------------------------------------------------------------

***  Geometry step: 22, Lattice step: 1

 iSCC Total electronic   Diff electronic      SCC error    
    1   -0.69533665E+01    0.00000000E+00    0.18888958E-05

Total Energy:                       -6.8915277122 H         -187.5280 eV
Extrapolated to 0K:                 -6.8915277122 H         -187.5280 eV
Total Mermin free energy:           -6.8915277122 H         -187.5280 eV
Force related energy:               -6.8915277122 H         -187.5280 eV

Volume:                              0.247403E+03 au^3   0.366614E+02 A^3
Pressure:                           -0.548913E-03 au    -0.161496E+11 Pa
Maximal force component:             0.419623E-04
Maximal Lattice force component:     0.581636E-01 au
>> Charges saved for restart in charges.bin

--------------------------------------------------------------------------------

***  Geometry step: 23, Lattice step: 1

 iSCC Total electronic   Diff electronic      SCC error    
    1   -0.69533655E+01    0.00000000E+00    0.19008666E-05

Total Energy:                       -6.8915277122 H         -187.5280 eV
Extrapolated to 0K:                 -6.8915277122 H         -187.5280 eV
Total Mermin free energy:           -6.8915277122 H         -187.5280 eV
Force related energy:               -6.8915277122 H         -187.5280 eV

Volume:                              0.247403E+03 au^3   0.366614E+02 A^3
Pressure:                           -0.548927E-03 au    -0.161500E+11 Pa
Maximal force component:             0.650733E-04
Maximal Lattice force component:     0.581616E-01 au
>> Charges saved for restart in charges.bin

--------------------------------------------------------------------------------

***  Geometry step: 24, Lattice step: 1

 iSCC Total electronic   Diff electronic      SCC error    
    1   -0.69533639E+01    0.00000000E+00    0.18947166E-05

Total Energy:                       -6.8915277125 H         -187.5280 eV
Extrapolated to 0K:                 -6.8915277125 H         -187.5280 eV
Total Mermin free energy:           -6.8915277125 H         -187.5280 eV
Force related energy:               -6.8915277125 H         -187.5280 eV

Volume:                              0.247403E+03 au^3   0.366614E+02 A^3
Pressure:                           -0.548920E-03 au    -0.161498E+11 Pa
Maximal force component:             0.532506E-04
Maximal Lattice force component:     0.581626E-01 au
>> Charges saved for restart in charges.bin

--------------------------------------------------------------------------------

***  Geometry step: 25, Lattice step: 1

 iSCC Total electronic   Diff electronic      SCC error    
    1   -0.69533647E+01    0.00000000E+00    0.19054629E-05

Total Energy:                       -6.8915277199 H         -187.5280 eV
Extrapolated to 0K:                 -6.8915277199 H         -187.5280 eV
Total Mermin free energy:           -6.8915277199 H         -187.5280 eV
Force related energy:               -6.8915277199 H         -187.5280 eV

Volume:                              0.247403E+03 au^3   0.366614E+02 A^3
Pressure:                           -0.548919E-03 au    -0.161498E+11 Pa
Maximal force component:             0.526272E-04
Maximal Lattice force component:     0.581626E-01 au
>> Charges saved for restart in charges.bin

--------------------------------------------------------------------------------

***  Geometry step: 26, Lattice step: 1

 iSCC Total electronic   Diff electronic      SCC error    
    1   -0.69533648E+01    0.00000000E+00    0.19237109E-05

Total Energy:                       -6.8915277318 H         -187.5280 eV
Extrapolated to 0K:                 -6.8915277318 H         -187.5280 eV
Total Mermin free energy:           -6.8915277318 H         -187.5280 eV
Force related energy:               -6.8915277318 H         -187.5280 eV

Volume:                              0.247403E+03 au^3   0.366614E+02 A^3
Pressure:                           -0.548919E-03 au    -0.161497E+11 Pa
Maximal force component:             0.516187E-04
Maximal Lattice force component:     0.581626E-01 au
>> Charges saved for restart in charges.bin

--------------------------------------------------------------------------------

***  Geometry step: 27, Lattice step: 1

 iSCC Total electronic   Diff electronic      SCC error    
    1   -0.69533649E+01    0.00000000E+00    0.19554895E-05

Total Energy:                       -6.8915277508 H         -187.5280 eV
Extrapolated to 0K:                 -6.8915277508 H         -187.5280 eV
Total Mermin free energy:           -6.8915277508 H         -187.5280 eV
Force related energy:               -6.8915277508 H         -187.5280 eV

Volume:                              0.247403E+03 au^3   0.366614E+02 A^3
Pressure:                           -0.548918E-03 au    -0.161497E+11 Pa
Maximal force component:             0.499870E-04
Maximal Lattice force component:     0.581626E-01 au
>> Charges saved for restart in charges.bin

--------------------------------------------------------------------------------

***  Geometry step: 28, Lattice step: 1

 iSCC Total electronic   Diff electronic      SCC error    
    1   -0.69533650E+01    0.00000000E+00    0.20128095E-05

Total Energy:                       -6.8915277808 H         -187.5280 eV
Extrapolated to 0K:                 -6.8915277808 H         -187.5280 eV
Total Mermin free energy:           -6.8915277808 H         -187.5280 eV
Force related energy:               -6.8915277808 H         -187.5280 eV

Volume:                              0.247403E+03 au^3   0.366614E+02 A^3
Pressure:                           -0.548917E-03 au    -0.161497E+11 Pa
Maximal force component:             0.473474E-04
Maximal Lattice force component:     0.581625E-01 au
>> Charges saved for restart in charges.bin

--------------------------------------------------------------------------------

***  Geometry step: 29, Lattice step: 1

 iSCC Total electronic   Diff electronic      SCC error    
    1   -0.69533652E+01    0.00000000E+00    0.21210209E-05

Total Energy:                       -6.8915278278 H         -187.5280 eV
Extrapolated to 0K:                 -6.8915278278 H         -187.5280 eV
Total Mermin free energy:           -6.8915278278 H         -187.5280 eV
Force related energy:               -6.8915278278 H         -187.5280 eV

Volume:                              0.247403E+03 au^3   0.366614E+02 A^3
Pressure:                           -0.548915E-03 au    -0.161496E+11 Pa
Maximal force component:             0.430774E-04
Maximal Lattice force component:     0.581625E-01 au
>> Charges saved for restart in charges.bin

--------------------------------------------------------------------------------

***  Geometry step: 30, Lattice step: 1

 iSCC Total electronic   Diff electronic      SCC error    
    1   -0.69533655E+01    0.00000000E+00    0.23366661E-05

Total Energy:                       -6.8915278994 H         -187.5280 eV
Extrapolated to 0K:                 -6.8915278994 H         -187.5280 eV
Total Mermin free energy:           -6.8915278994 H         -187.5280 eV
Force related energy:               -6.8915278994 H         -187.5280 eV

Volume:                              0.247403E+03 au^3   0.366614E+02 A^3
Pressure:                           -0.548912E-03 au    -0.161495E+11 Pa
Maximal force component:             0.361713E-04
Maximal Lattice force component:     0.581624E-01 au
>> Charges saved for restart in charges.bin

--------------------------------------------------------------------------------

***  Geometry step: 31, Lattice step: 1

 iSCC Total electronic   Diff electronic      SCC error    
    1   -0.69533660E+01    0.00000000E+00    0.27920677E-05

Total Energy:                       -6.8915280013 H         -187.5280 eV
Extrapolated to 0K:                 -6.8915280013 H         -187.5280 eV
Total Mermin free energy:           -6.8915280013 H         -187.5280 eV
Force related energy:               -6.8915280013 H         -187.5280 eV

Volume:                              0.247403E+03 au^3   0.366614E+02 A^3
Pressure:                           -0.548907E-03 au    -0.161494E+11 Pa
Maximal force component:             0.250044E-04
Maximal Lattice force component:     0.581623E-01 au
>> Charges saved for restart in charges.bin

--------------------------------------------------------------------------------

***  Geometry step: 32, Lattice step: 1

 iSCC Total electronic   Diff electronic      SCC error    
    1   -0.69533669E+01    0.00000000E+00    0.38091250E-05

Total Energy:                       -6.8915281412 H         -187.5280 eV
Extrapolated to 0K:                 -6.8915281412 H         -187.5280 eV
Total Mermin free energy:           -6.8915281412 H         -187.5280 eV
Force related energy:               -6.8915281412 H         -187.5280 eV

Volume:                              0.247403E+03 au^3   0.366614E+02 A^3
Pressure:                           -0.548898E-03 au    -0.161491E+11 Pa
Maximal force component:             0.707582E-05
Maximal Lattice force component:     0.581622E-01 au
>> Charges saved for restart in charges.bin

--------------------------------------------------------------------------------

***  Geometry step: 33, Lattice step: 1

 iSCC Total electronic   Diff electronic      SCC error    
    1   -0.69533682E+01    0.00000000E+00    0.61948352E-05

Total Energy:                       -6.8915282921 H         -187.5280 eV
Extrapolated to 0K:                 -6.8915282921 H         -187.5280 eV
Total Mermin free energy:           -6.8915282921 H         -187.5280 eV
Force related energy:               -6.8915282921 H         -187.5280 eV

Volume:                              0.247403E+03 au^3   0.366614E+02 A^3
Pressure:                           -0.548884E-03 au    -0.161487E+11 Pa
Maximal force component:             0.264520E-04
Maximal Lattice force component:     0.581620E-01 au
>> Charges saved for restart in charges.bin

--------------------------------------------------------------------------------

***  Geometry step: 34, Lattice step: 1

 iSCC Total electronic   Diff electronic      SCC error    
    1   -0.69533703E+01    0.00000000E+00    0.12021841E-04
    2   -0.69533735E+01   -0.31796311E-05    0.91047919E-05

Total Energy:                       -6.8915283460 H         -187.5280 eV
Extrapolated to 0K:                 -6.8915283460 H         -187.5280 eV
Total Mermin free energy:           -6.8915283460 H         -187.5280 eV
Force related energy:               -6.8915283460 H         -187.5280 eV

Volume:                              0.247403E+03 au^3   0.366614E+02 A^3
Pressure:                           -0.548858E-03 au    -0.161480E+11 Pa
Maximal force component:             0.692819E-04
Maximal Lattice force component:     0.581619E-01 au
>> Charges saved for restart in charges.bin

--------------------------------------------------------------------------------

***  Geometry step: 35, Lattice step: 1

 iSCC Total electronic   Diff electronic      SCC error    
    1   -0.69533735E+01    0.00000000E+00    0.37934574E-04
    2   -0.69531861E+01    0.18734677E-03    0.28729546E-04
    3   -0.69531861E+01   -0.25028868E-11    0.38404835E-11

Total Energy:                       -6.8915108363 H         -187.5276 eV
Extrapolated to 0K:                 -6.8915108363 H         -187.5276 eV
Total Mermin free energy:           -6.8915108363 H         -187.5276 eV
Force related energy:               -6.8915108363 H         -187.5276 eV

Volume:                              0.247403E+03 au^3   0.366614E+02 A^3
Pressure:                           -0.550328E-03 au    -0.161912E+11 Pa
Maximal force component:             0.285207E-02
Maximal Lattice force component:     0.579537E-01 au
>> Charges saved for restart in charges.bin

--------------------------------------------------------------------------------

***  Geometry step: 36, Lattice step: 1

 iSCC Total electronic   Diff electronic      SCC error    
    1   -0.69531861E+01    0.00000000E+00    0.28450653E-04
    2   -0.69533699E+01   -0.18378642E-03    0.21547218E-04
    3   -0.69533699E+01   -0.14059864E-11    0.29838354E-11

Total Energy:                       -6.8915283524 H         -187.5280 eV
Extrapolated to 0K:                 -6.8915283524 H         -187.5280 eV
Total Mermin free energy:           -6.8915283524 H         -187.5280 eV
Force related energy:               -6.8915283524 H         -187.5280 eV

Volume:                              0.247403E+03 au^3   0.366614E+02 A^3
Pressure:                           -0.548890E-03 au    -0.161489E+11 Pa
Maximal force component:             0.141164E-04
Maximal Lattice force component:     0.581582E-01 au
>> Charges saved for restart in charges.bin

--------------------------------------------------------------------------------

***  Geometry step: 37, Lattice step: 1

 iSCC Total electronic   Diff electronic      SCC error    
    1   -0.69533699E+01    0.00000000E+00    0.34320828E-06

Total Energy:                       -6.8915283556 H         -187.5280 eV
Extrapolated to 0K:                 -6.8915283556 H         -187.5280 eV
Total Mermin free energy:           -6.8915283556 H         -187.5280 eV
Force related energy:               -6.8915283556 H         -187.5280 eV

Volume:                              0.247403E+03 au^3   0.366614E+02 A^3
Pressure:                           -0.548899E-03 au    -0.161492E+11 Pa
Maximal force component:             0.364080E-05
Maximal Lattice force component:     0.581575E-01 au
>> Charges saved for restart in charges.bin

--------------------------------------------------------------------------------

***  Geometry step: 38, Lattice step: 1

 iSCC Total electronic   Diff electronic      SCC error    
    1   -0.69533689E+01    0.00000000E+00    0.88618589E-06

Total Energy:                       -6.8915283543 H         -187.5280 eV
Extrapolated to 0K:                 -6.8915283543 H         -187.5280 eV
Total Mermin free energy:           -6.8915283543 H         -187.5280 eV
Force related energy:               -6.8915283543 H         -187.5280 eV

Volume:                              0.247403E+03 au^3   0.366614E+02 A^3
Pressure:                           -0.548914E-03 au    -0.161496E+11 Pa
Maximal force component:             0.298905E-04
Maximal Lattice force component:     0.581564E-01 au
>> Charges saved for restart in charges.bin

--------------------------------------------------------------------------------

***  Geometry step: 39, Lattice step: 1

 iSCC Total electronic   Diff electronic      SCC error    
    1   -0.69533672E+01    0.00000000E+00    0.85212691E-06

Total Energy:                       -6.8915283543 H         -187.5280 eV
Extrapolated to 0K:                 -6.8915283543 H         -187.5280 eV
Total Mermin free energy:           -6.8915283543 H         -187.5280 eV
Force related energy:               -6.8915283543 H         -187.5280 eV

Volume:                              0.247403E+03 au^3   0.366614E+02 A^3
Pressure:                           -0.548913E-03 au    -0.161496E+11 Pa
Maximal force component:             0.282221E-04
Maximal Lattice force component:     0.581565E-01 au
>> Charges saved for restart in charges.bin

--------------------------------------------------------------------------------

***  Geometry step: 40, Lattice step: 1

 iSCC Total electronic   Diff electronic      SCC error    
    1   -0.69533673E+01    0.00000000E+00    0.16950233E-05

Total Energy:                       -6.8915283584 H         -187.5280 eV
Extrapolated to 0K:                 -6.8915283584 H         -187.5280 eV
Total Mermin free energy:           -6.8915283584 H         -187.5280 eV
Force related energy:               -6.8915283584 H         -187.5280 eV

Volume:                              0.247403E+03 au^3   0.366614E+02 A^3
Pressure:                           -0.548902E-03 au    -0.161492E+11 Pa
Maximal force component:             0.821226E-05
Maximal Lattice force component:     0.581578E-01 au
>> Charges saved for restart in charges.bin

--------------------------------------------------------------------------------

***  Geometry step: 41, Lattice step: 1

 iSCC Total electronic   Diff electronic      SCC error    
    1   -0.69533685E+01    0.00000000E+00    0.29778020E-05

Total Energy:                       -6.8915283548 H         -187.5280 eV
Extrapolated to 0K:                 -6.8915283548 H         -187.5280 eV
Total Mermin free energy:           -6.8915283548 H         -187.5280 eV
Force related energy:               -6.8915283548 H         -187.5280 eV

Volume:                              0.247403E+03 au^3   0.366614E+02 A^3
Pressure:                           -0.548885E-03 au    -0.161487E+11 Pa
Maximal force component:             0.241685E-04
Maximal Lattice force component:     0.581599E-01 au
>> Charges saved for restart in charges.bin

--------------------------------------------------------------------------------

***  Geometry step: 42, Lattice step: 1

 iSCC Total electronic   Diff electronic      SCC error    
    1   -0.69533704E+01    0.00000000E+00    0.19744977E-05

Total Energy:                       -6.8915283588 H         -187.5280 eV
Extrapolated to 0K:                 -6.8915283588 H         -187.5280 eV
Total Mermin free energy:           -6.8915283588 H         -187.5280 eV
Force related energy:               -6.8915283588 H         -187.5280 eV

Volume:                              0.247403E+03 au^3   0.366614E+02 A^3
Pressure:                           -0.548898E-03 au    -0.161491E+11 Pa
Maximal force component:             0.139014E-05
Maximal Lattice force component:     0.581582E-01 au
>> Charges saved for restart in charges.bin

--------------------------------------------------------------------------------

***  Geometry step: 43, Lattice step: 1

 iSCC Total electronic   Diff electronic      SCC error    
    1   -0.69533689E+01    0.00000000E+00    0.19744977E-05

Total Energy:                       -6.8915283588 H         -187.5280 eV
Extrapolated to 0K:                 -6.8915283588 H         -187.5280 eV
Total Mermin free energy:           -6.8915283588 H         -187.5280 eV
Force related energy:               -6.8915283588 H         -187.5280 eV

Volume:                              0.247403E+03 au^3   0.366614E+02 A^3
Pressure:                           -0.548898E-03 au    -0.161491E+11 Pa
Maximal force component:             0.139014E-05
Maximal Lattice force component:     0.581582E-01 au
>> Charges saved for restart in charges.bin

--------------------------------------------------------------------------------

***  Geometry step: 44, Lattice step: 2

 iSCC Total electronic   Diff electronic      SCC error    
    1   -0.69533689E+01    0.00000000E+00    0.13745815E-03
    2   -0.69927667E+01   -0.39397741E-01    0.10476116E-03
    3   -0.69927667E+01   -0.27011282E-10    0.13475887E-10

Total Energy:                       -6.8959804343 H         -187.6492 eV
Extrapolated to 0K:                 -6.8959804343 H         -187.6492 eV
Total Mermin free energy:           -6.8959804343 H         -187.6492 eV
Force related energy:               -6.8959804343 H         -187.6492 eV

Volume:                              0.238859E+03 au^3   0.353953E+02 A^3
Pressure:                           -0.444734E-05 au    -0.130845E+09 Pa
Maximal force component:             0.461053E-02
Maximal Lattice force component:     0.362065E-02 au
>> Charges saved for restart in charges.bin

--------------------------------------------------------------------------------

***  Geometry step: 45, Lattice step: 2

 iSCC Total electronic   Diff electronic      SCC error    
    1   -0.69927667E+01    0.00000000E+00    0.19650323E-04
    2   -0.69933817E+01   -0.61501702E-03    0.14976143E-04
    3   -0.69933817E+01   -0.55155880E-12    0.31796787E-12

Total Energy:                       -6.8945535852 H         -187.6103 eV
Extrapolated to 0K:                 -6.8945535852 H         -187.6103 eV
Total Mermin free energy:           -6.8945535852 H         -187.6103 eV
Force related energy:               -6.8945535852 H         -187.6103 eV

Volume:                              0.238859E+03 au^3   0.353953E+02 A^3
Pressure:                            0.136757E-04 au     0.402354E+09 Pa
Maximal force component:             0.282583E-01
Maximal Lattice force component:     0.139173E-01 au
>> Charges saved for restart in charges.bin

--------------------------------------------------------------------------------

***  Geometry step: 46, Lattice step: 2

 iSCC Total electronic   Diff electronic      SCC error    
    1   -0.69933817E+01    0.00000000E+00    0.18765919E-04
    2   -0.69928317E+01    0.54992152E-03    0.14302151E-04
    3   -0.69928317E+01   -0.50182081E-12    0.17186252E-12

Total Energy:                       -6.8960214087 H         -187.6503 eV
Extrapolated to 0K:                 -6.8960214087 H         -187.6503 eV
Total Mermin free energy:           -6.8960214087 H         -187.6503 eV
Force related energy:               -6.8960214087 H         -187.6503 eV

Volume:                              0.238859E+03 au^3   0.353953E+02 A^3
Pressure:                           -0.432696E-05 au    -0.127304E+09 Pa
Maximal force component:             0.155285E-03
Maximal Lattice force component:     0.512995E-02 au
>> Charges saved for restart in charges.bin

--------------------------------------------------------------------------------

***  Geometry step: 47, Lattice step: 2

 iSCC Total electronic   Diff electronic      SCC error    
    1   -0.69928317E+01    0.00000000E+00    0.17265529E-05

Total Energy:                       -6.8960049862 H         -187.6498 eV
Extrapolated to 0K:                 -6.8960049862 H         -187.6498 eV
Total Mermin free energy:           -6.8960049862 H         -187.6498 eV
Force related energy:               -6.8960049862 H         -187.6498 eV

Volume:                              0.238859E+03 au^3   0.353953E+02 A^3
Pressure:                           -0.377834E-05 au    -0.111163E+09 Pa
Maximal force component:             0.294604E-02
Maximal Lattice force component:     0.615535E-02 au
>> Charges saved for restart in charges.bin

--------------------------------------------------------------------------------

***  Geometry step: 48, Lattice step: 2

 iSCC Total electronic   Diff electronic      SCC error    
    1   -0.69928798E+01    0.00000000E+00    0.83912898E-07

Total Energy:                       -6.8960214551 H         -187.6503 eV
Extrapolated to 0K:                 -6.8960214551 H         -187.6503 eV
Total Mermin free energy:           -6.8960214551 H         -187.6503 eV
Force related energy:               -6.8960214551 H         -187.6503 eV

Volume:                              0.238859E+03 au^3   0.353953E+02 A^3
Pressure:                           -0.430845E-05 au    -0.126759E+09 Pa
Maximal force component:             0.103671E-04
Maximal Lattice force component:     0.518180E-02 au
>> Charges saved for restart in charges.bin

--------------------------------------------------------------------------------

***  Geometry step: 49, Lattice step: 2

 iSCC Total electronic   Diff electronic      SCC error    
    1   -0.69928341E+01    0.00000000E+00    0.90478970E-07

Total Energy:                       -6.8960214183 H         -187.6503 eV
Extrapolated to 0K:                 -6.8960214183 H         -187.6503 eV
Total Mermin free energy:           -6.8960214183 H         -187.6503 eV
Force related energy:               -6.8960214183 H         -187.6503 eV

Volume:                              0.238859E+03 au^3   0.353953E+02 A^3
Pressure:                           -0.432649E-05 au    -0.127290E+09 Pa
Maximal force component:             0.150430E-03
Maximal Lattice force component:     0.513176E-02 au
>> Charges saved for restart in charges.bin

--------------------------------------------------------------------------------

***  Geometry step: 50, Lattice step: 2

 iSCC Total electronic   Diff electronic      SCC error    
    1   -0.69928318E+01    0.00000000E+00    0.84372640E-07

Total Energy:                       -6.8960214554 H         -187.6503 eV
Extrapolated to 0K:                 -6.8960214554 H         -187.6503 eV
Total Mermin free energy:           -6.8960214554 H         -187.6503 eV
Force related energy:               -6.8960214554 H         -187.6503 eV

Volume:                              0.238859E+03 au^3   0.353953E+02 A^3
Pressure:                           -0.430981E-05 au    -0.126799E+09 Pa
Maximal force component:             0.112814E-04
Maximal Lattice force component:     0.517812E-02 au
>> Charges saved for restart in charges.bin

--------------------------------------------------------------------------------

***  Geometry step: 51, Lattice step: 2

 iSCC Total electronic   Diff electronic      SCC error    
    1   -0.69928339E+01    0.00000000E+00    0.88805529E-07

Total Energy:                       -6.8960214557 H         -187.6503 eV
Extrapolated to 0K:                 -6.8960214557 H         -187.6503 eV
Total Mermin free energy:           -6.8960214557 H         -187.6503 eV
Force related energy:               -6.8960214557 H         -187.6503 eV

Volume:                              0.238859E+03 au^3   0.353953E+02 A^3
Pressure:                           -0.430981E-05 au    -0.126799E+09 Pa
Maximal force component:             0.112928E-04
Maximal Lattice force component:     0.517812E-02 au
>> Charges saved for restart in charges.bin

--------------------------------------------------------------------------------

***  Geometry step: 52, Lattice step: 2

 iSCC Total electronic   Diff electronic      SCC error    
    1   -0.69928339E+01    0.00000000E+00    0.95975263E-07

Total Energy:                       -6.8960214562 H         -187.6503 eV
Extrapolated to 0K:                 -6.8960214562 H         -187.6503 eV
Total Mermin free energy:           -6.8960214562 H         -187.6503 eV
Force related energy:               -6.8960214562 H         -187.6503 eV

Volume:                              0.238859E+03 au^3   0.353953E+02 A^3
Pressure:                           -0.430983E-05 au    -0.126799E+09 Pa
Maximal force component:             0.113113E-04
Maximal Lattice force component:     0.517812E-02 au
>> Charges saved for restart in charges.bin

--------------------------------------------------------------------------------

***  Geometry step: 53, Lattice step: 2

 iSCC Total electronic   Diff electronic      SCC error    
    1   -0.69928339E+01    0.00000000E+00    0.10756857E-06

Total Energy:                       -6.8960214571 H         -187.6503 eV
Extrapolated to 0K:                 -6.8960214571 H         -187.6503 eV
Total Mermin free energy:           -6.8960214571 H         -187.6503 eV
Force related energy:               -6.8960214571 H         -187.6503 eV

Volume:                              0.238859E+03 au^3   0.353953E+02 A^3
Pressure:                           -0.430985E-05 au    -0.126800E+09 Pa
Maximal force component:             0.113412E-04
Maximal Lattice force component:     0.517813E-02 au
>> Charges saved for restart in charges.bin

--------------------------------------------------------------------------------

***  Geometry step: 54, Lattice step: 2

 iSCC Total electronic   Diff electronic      SCC error    
    1   -0.69928339E+01    0.00000000E+00    0.12630724E-06

Total Energy:                       -6.8960214585 H         -187.6503 eV
Extrapolated to 0K:                 -6.8960214585 H         -187.6503 eV
Total Mermin free energy:           -6.8960214585 H         -187.6503 eV
Force related energy:               -6.8960214585 H         -187.6503 eV

Volume:                              0.238859E+03 au^3   0.353953E+02 A^3
Pressure:                           -0.430988E-05 au    -0.126801E+09 Pa
Maximal force component:             0.113897E-04
Maximal Lattice force component:     0.517813E-02 au
>> Charges saved for restart in charges.bin

--------------------------------------------------------------------------------

***  Geometry step: 55, Lattice step: 2

 iSCC Total electronic   Diff electronic      SCC error    
    1   -0.69928339E+01    0.00000000E+00    0.15657545E-06

Total Energy:                       -6.8960214608 H         -187.6503 eV
Extrapolated to 0K:                 -6.8960214608 H         -187.6503 eV
Total Mermin free energy:           -6.8960214608 H         -187.6503 eV
Force related energy:               -6.8960214608 H         -187.6503 eV

Volume:                              0.238859E+03 au^3   0.353953E+02 A^3
Pressure:                           -0.430994E-05 au    -0.126803E+09 Pa
Maximal force component:             0.114680E-04
Maximal Lattice force component:     0.517813E-02 au
>> Charges saved for restart in charges.bin

--------------------------------------------------------------------------------

***  Geometry step: 56, Lattice step: 2

 iSCC Total electronic   Diff electronic      SCC error    
    1   -0.69928339E+01    0.00000000E+00    0.20541543E-06

Total Energy:                       -6.8960214646 H         -187.6503 eV
Extrapolated to 0K:                 -6.8960214646 H         -187.6503 eV
Total Mermin free energy:           -6.8960214646 H         -187.6503 eV
Force related energy:               -6.8960214646 H         -187.6503 eV

Volume:                              0.238859E+03 au^3   0.353953E+02 A^3
Pressure:                           -0.431003E-05 au    -0.126805E+09 Pa
Maximal force component:             0.115948E-04
Maximal Lattice force component:     0.517813E-02 au
>> Charges saved for restart in charges.bin

--------------------------------------------------------------------------------

***  Geometry step: 57, Lattice step: 2

 iSCC Total electronic   Diff electronic      SCC error    
    1   -0.69928339E+01    0.00000000E+00    0.28408667E-06

Total Energy:                       -6.8960214705 H         -187.6503 eV
Extrapolated to 0K:                 -6.8960214705 H         -187.6503 eV
Total Mermin free energy:           -6.8960214705 H         -187.6503 eV
Force related energy:               -6.8960214705 H         -187.6503 eV

Volume:                              0.238859E+03 au^3   0.353953E+02 A^3
Pressure:                           -0.431017E-05 au    -0.126810E+09 Pa
Maximal force component:             0.117998E-04
Maximal Lattice force component:     0.517813E-02 au
>> Charges saved for restart in charges.bin

--------------------------------------------------------------------------------

***  Geometry step: 58, Lattice step: 2

 iSCC Total electronic   Diff electronic      SCC error    
    1   -0.69928339E+01    0.00000000E+00    0.41045414E-06

Total Energy:                       -6.8960214801 H         -187.6503 eV
Extrapolated to 0K:                 -6.8960214801 H         -187.6503 eV
Total Mermin free energy:           -6.8960214801 H         -187.6503 eV
Force related energy:               -6.8960214801 H         -187.6503 eV

Volume:                              0.238859E+03 au^3   0.353953E+02 A^3
Pressure:                           -0.431041E-05 au    -0.126817E+09 Pa
Maximal force component:             0.121316E-04
Maximal Lattice force component:     0.517813E-02 au
>> Charges saved for restart in charges.bin

--------------------------------------------------------------------------------

***  Geometry step: 59, Lattice step: 2

 iSCC Total electronic   Diff electronic      SCC error    
    1   -0.69928339E+01    0.00000000E+00    0.61249990E-06

Total Energy:                       -6.8960214955 H         -187.6503 eV
Extrapolated to 0K:                 -6.8960214955 H         -187.6503 eV
Total Mermin free energy:           -6.8960214955 H         -187.6503 eV
Force related energy:               -6.8960214955 H         -187.6503 eV

Volume:                              0.238859E+03 au^3   0.353953E+02 A^3
Pressure:                           -0.431079E-05 au    -0.126828E+09 Pa
Maximal force component:             0.126684E-04
Maximal Lattice force component:     0.517813E-02 au
>> Charges saved for restart in charges.bin

--------------------------------------------------------------------------------

***  Geometry step: 60, Lattice step: 2

 iSCC Total electronic   Diff electronic      SCC error    
    1   -0.69928339E+01    0.00000000E+00    0.93308318E-06

Total Energy:                       -6.8960215195 H         -187.6503 eV
Extrapolated to 0K:                 -6.8960215195 H         -187.6503 eV
Total Mermin free energy:           -6.8960215195 H         -187.6503 eV
Force related energy:               -6.8960215195 H         -187.6503 eV

Volume:                              0.238859E+03 au^3   0.353953E+02 A^3
Pressure:                           -0.431138E-05 au    -0.126845E+09 Pa
Maximal force component:             0.135364E-04
Maximal Lattice force component:     0.517813E-02 au
>> Charges saved for restart in charges.bin

--------------------------------------------------------------------------------

***  Geometry step: 61, Lattice step: 2

 iSCC Total electronic   Diff electronic      SCC error    
    1   -0.69928340E+01    0.00000000E+00    0.21099709E-05

Total Energy:                       -6.8960121803 H         -187.6500 eV
Extrapolated to 0K:                 -6.8960121803 H         -187.6500 eV
Total Mermin free energy:           -6.8960121803 H         -187.6500 eV
Force related energy:               -6.8960121803 H         -187.6500 eV

Volume:                              0.238859E+03 au^3   0.353953E+02 A^3
Pressure:                           -0.394375E-05 au    -0.116029E+09 Pa
Maximal force component:             0.220935E-02
Maximal Lattice force component:     0.591483E-02 au
>> Charges saved for restart in charges.bin

--------------------------------------------------------------------------------

***  Geometry step: 62, Lattice step: 2

 iSCC Total electronic   Diff electronic      SCC error    
    1   -0.69928682E+01    0.00000000E+00    0.94034234E-06

Total Energy:                       -6.8960215199 H         -187.6503 eV
Extrapolated to 0K:                 -6.8960215199 H         -187.6503 eV
Total Mermin free energy:           -6.8960215199 H         -187.6503 eV
Force related energy:               -6.8960215199 H         -187.6503 eV

Volume:                              0.238859E+03 au^3   0.353953E+02 A^3
Pressure:                           -0.430966E-05 au    -0.126795E+09 Pa
Maximal force component:             0.103046E-04
Maximal Lattice force component:     0.518283E-02 au
>> Charges saved for restart in charges.bin

--------------------------------------------------------------------------------

***  Geometry step: 63, Lattice step: 2

 iSCC Total electronic   Diff electronic      SCC error    
    1   -0.69928342E+01    0.00000000E+00    0.94591855E-06

Total Energy:                       -6.8960215203 H         -187.6503 eV
Extrapolated to 0K:                 -6.8960215203 H         -187.6503 eV
Total Mermin free energy:           -6.8960215203 H         -187.6503 eV
Force related energy:               -6.8960215203 H         -187.6503 eV

Volume:                              0.238859E+03 au^3   0.353953E+02 A^3
Pressure:                           -0.430945E-05 au    -0.126788E+09 Pa
Maximal force component:             0.121143E-04
Maximal Lattice force component:     0.518344E-02 au
>> Charges saved for restart in charges.bin

--------------------------------------------------------------------------------

***  Geometry step: 64, Lattice step: 2

 iSCC Total electronic   Diff electronic      SCC error    
    1   -0.69928342E+01    0.00000000E+00    0.95493772E-06

Total Energy:                       -6.8960215208 H         -187.6503 eV
Extrapolated to 0K:                 -6.8960215208 H         -187.6503 eV
Total Mermin free energy:           -6.8960215208 H         -187.6503 eV
Force related energy:               -6.8960215208 H         -187.6503 eV

Volume:                              0.238859E+03 au^3   0.353953E+02 A^3
Pressure:                           -0.430910E-05 au    -0.126778E+09 Pa
Maximal force component:             0.150425E-04
Maximal Lattice force component:     0.518443E-02 au
>> Charges saved for restart in charges.bin

--------------------------------------------------------------------------------

***  Geometry step: 65, Lattice step: 2

 iSCC Total electronic   Diff electronic      SCC error    
    1   -0.69928342E+01    0.00000000E+00    0.96952214E-06

Total Energy:                       -6.8960215215 H         -187.6503 eV
Extrapolated to 0K:                 -6.8960215215 H         -187.6503 eV
Total Mermin free energy:           -6.8960215215 H         -187.6503 eV
Force related energy:               -6.8960215215 H         -187.6503 eV

Volume:                              0.238859E+03 au^3   0.353953E+02 A^3
Pressure:                           -0.430853E-05 au    -0.126761E+09 Pa
Maximal force component:             0.197805E-04
Maximal Lattice force component:     0.518603E-02 au
>> Charges saved for restart in charges.bin

--------------------------------------------------------------------------------

***  Geometry step: 66, Lattice step: 2

 iSCC Total electronic   Diff electronic      SCC error    
    1   -0.69928343E+01    0.00000000E+00    0.99309710E-06

Total Energy:                       -6.8960215223 H         -187.6503 eV
Extrapolated to 0K:                 -6.8960215223 H         -187.6503 eV
Total Mermin free energy:           -6.8960215223 H         -187.6503 eV
Force related energy:               -6.8960215223 H         -187.6503 eV

Volume:                              0.238859E+03 au^3   0.353953E+02 A^3
Pressure:                           -0.430762E-05 au    -0.126734E+09 Pa
Maximal force component:             0.274468E-04
Maximal Lattice force component:     0.518863E-02 au
>> Charges saved for restart in charges.bin

--------------------------------------------------------------------------------

***  Geometry step: 67, Lattice step: 2

 iSCC Total electronic   Diff electronic      SCC error    
    1   -0.69928344E+01    0.00000000E+00    0.10311814E-05

Total Energy:                       -6.8960215227 H         -187.6503 eV
Extrapolated to 0K:                 -6.8960215227 H         -187.6503 eV
Total Mermin free energy:           -6.8960215227 H         -187.6503 eV
Force related energy:               -6.8960215227 H         -187.6503 eV

Volume:                              0.238859E+03 au^3   0.353953E+02 A^3
Pressure:                           -0.430613E-05 au    -0.126691E+09 Pa
Maximal force component:             0.398514E-04
Maximal Lattice force component:     0.519282E-02 au
>> Charges saved for restart in charges.bin

--------------------------------------------------------------------------------

***  Geometry step: 68, Lattice step: 2

 iSCC Total electronic   Diff electronic      SCC error    
    1   -0.69928346E+01    0.00000000E+00    0.10283637E-05

Total Energy:                       -6.8960215227 H         -187.6503 eV
Extrapolated to 0K:                 -6.8960215227 H         -187.6503 eV
Total Mermin free energy:           -6.8960215227 H         -187.6503 eV
Force related energy:               -6.8960215227 H         -187.6503 eV

Volume:                              0.238859E+03 au^3   0.353953E+02 A^3
Pressure:                           -0.430624E-05 au    -0.126694E+09 Pa
Maximal force component:             0.389328E-04
Maximal Lattice force component:     0.519251E-02 au
>> Charges saved for restart in charges.bin

--------------------------------------------------------------------------------

***  Geometry step: 69, Lattice step: 2

 iSCC Total electronic   Diff electronic      SCC error    
    1   -0.69928346E+01    0.00000000E+00    0.11055788E-05

Total Energy:                       -6.8960215280 H         -187.6503 eV
Extrapolated to 0K:                 -6.8960215280 H         -187.6503 eV
Total Mermin free energy:           -6.8960215280 H         -187.6503 eV
Force related energy:               -6.8960215280 H         -187.6503 eV

Volume:                              0.238859E+03 au^3   0.353953E+02 A^3
Pressure:                           -0.430842E-05 au    -0.126758E+09 Pa
Maximal force component:             0.310229E-04
Maximal Lattice force component:     0.518706E-02 au
>> Charges saved for restart in charges.bin

--------------------------------------------------------------------------------

***  Geometry step: 70, Lattice step: 2

 iSCC Total electronic   Diff electronic      SCC error    
    1   -0.69928344E+01    0.00000000E+00    0.12297065E-05

Total Energy:                       -6.8960215316 H         -187.6503 eV
Extrapolated to 0K:                 -6.8960215316 H         -187.6503 eV
Total Mermin free energy:           -6.8960215316 H         -187.6503 eV
Force related energy:               -6.8960215316 H         -187.6503 eV

Volume:                              0.238859E+03 au^3   0.353953E+02 A^3
Pressure:                           -0.431195E-05 au    -0.126862E+09 Pa
Maximal force component:             0.532805E-04
Maximal Lattice force component:     0.517823E-02 au
>> Charges saved for restart in charges.bin

--------------------------------------------------------------------------------

***  Geometry step: 71, Lattice step: 2

 iSCC Total electronic   Diff electronic      SCC error    
    1   -0.69928339E+01    0.00000000E+00    0.14284334E-05

Total Energy:                       -6.8960215238 H         -187.6503 eV
Extrapolated to 0K:                 -6.8960215238 H         -187.6503 eV
Total Mermin free energy:           -6.8960215238 H         -187.6503 eV
Force related energy:               -6.8960215238 H         -187.6503 eV

Volume:                              0.238859E+03 au^3   0.353953E+02 A^3
Pressure:                           -0.431763E-05 au    -0.127029E+09 Pa
Maximal force component:             0.892941E-04
Maximal Lattice force component:     0.516394E-02 au
>> Charges saved for restart in charges.bin

--------------------------------------------------------------------------------

***  Geometry step: 72, Lattice step: 2

 iSCC Total electronic   Diff electronic      SCC error    
    1   -0.69928333E+01    0.00000000E+00    0.12373155E-05

Total Energy:                       -6.8960215316 H         -187.6503 eV
Extrapolated to 0K:                 -6.8960215316 H         -187.6503 eV
Total Mermin free energy:           -6.8960215316 H         -187.6503 eV
Force related energy:               -6.8960215316 H         -187.6503 eV

Volume:                              0.238859E+03 au^3   0.353953E+02 A^3
Pressure:                           -0.431217E-05 au    -0.126868E+09 Pa
Maximal force component:             0.546507E-04
Maximal Lattice force component:     0.517768E-02 au
>> Charges saved for restart in charges.bin

--------------------------------------------------------------------------------

***  Geometry step: 73, Lattice step: 2

 iSCC Total electronic   Diff electronic      SCC error    
    1   -0.69928339E+01    0.00000000E+00    0.14533497E-05

Total Energy:                       -6.8960215491 H         -187.6503 eV
Extrapolated to 0K:                 -6.8960215491 H         -187.6503 eV
Total Mermin free energy:           -6.8960215491 H         -187.6503 eV
Force related energy:               -6.8960215491 H         -187.6503 eV

Volume:                              0.238859E+03 au^3   0.353953E+02 A^3
Pressure:                           -0.431311E-05 au    -0.126896E+09 Pa
Maximal force component:             0.498760E-04
Maximal Lattice force component:     0.517622E-02 au
>> Charges saved for restart in charges.bin

--------------------------------------------------------------------------------

***  Geometry step: 74, Lattice step: 2

 iSCC Total electronic   Diff electronic      SCC error    
    1   -0.69928339E+01    0.00000000E+00    0.17946832E-05

Total Energy:                       -6.8960215763 H         -187.6503 eV
Extrapolated to 0K:                 -6.8960215763 H         -187.6503 eV
Total Mermin free energy:           -6.8960215763 H         -187.6503 eV
Force related energy:               -6.8960215763 H         -187.6503 eV

Volume:                              0.238859E+03 au^3   0.353953E+02 A^3
Pressure:                           -0.431462E-05 au    -0.126941E+09 Pa
Maximal force component:             0.421504E-04
Maximal Lattice force component:     0.517385E-02 au
>> Charges saved for restart in charges.bin

--------------------------------------------------------------------------------

***  Geometry step: 75, Lattice step: 2

 iSCC Total electronic   Diff electronic      SCC error    
    1   -0.69928338E+01    0.00000000E+00    0.23254963E-05

Total Energy:                       -6.8960216167 H         -187.6503 eV
Extrapolated to 0K:                 -6.8960216167 H         -187.6503 eV
Total Mermin free energy:           -6.8960216167 H         -187.6503 eV
Force related energy:               -6.8960216167 H         -187.6503 eV

Volume:                              0.238859E+03 au^3   0.353953E+02 A^3
Pressure:                           -0.431704E-05 au    -0.127012E+09 Pa
Maximal force component:             0.418172E-04
Maximal Lattice force component:     0.517002E-02 au
>> Charges saved for restart in charges.bin

--------------------------------------------------------------------------------

***  Geometry step: 76, Lattice step: 2

 iSCC Total electronic   Diff electronic      SCC error    
    1   -0.69928336E+01    0.00000000E+00    0.31282940E-05

Total Energy:                       -6.8960216731 H         -187.6503 eV
Extrapolated to 0K:                 -6.8960216731 H         -187.6503 eV
Total Mermin free energy:           -6.8960216731 H         -187.6503 eV
Force related energy:               -6.8960216731 H         -187.6503 eV

Volume:                              0.238859E+03 au^3   0.353953E+02 A^3
Pressure:                           -0.432086E-05 au    -0.127124E+09 Pa
Maximal force component:             0.629155E-04
Maximal Lattice force component:     0.516381E-02 au
>> Charges saved for restart in charges.bin

--------------------------------------------------------------------------------

***  Geometry step: 77, Lattice step: 2

 iSCC Total electronic   Diff electronic      SCC error    
    1   -0.69928333E+01    0.00000000E+00    0.42811734E-05

Total Energy:                       -6.8960217397 H         -187.6503 eV
Extrapolated to 0K:                 -6.8960217397 H         -187.6503 eV
Total Mermin free energy:           -6.8960217397 H         -187.6503 eV
Force related energy:               -6.8960217397 H         -187.6503 eV

Volume:                              0.238859E+03 au^3   0.353953E+02 A^3
Pressure:                           -0.432680E-05 au    -0.127299E+09 Pa
Maximal force component:             0.970463E-04
Maximal Lattice force component:     0.515377E-02 au
>> Charges saved for restart in charges.bin

--------------------------------------------------------------------------------

***  Geometry step: 78, Lattice step: 2

 iSCC Total electronic   Diff electronic      SCC error    
    1   -0.69928329E+01    0.00000000E+00    0.57671007E-05

Total Energy:                       -6.8960217832 H         -187.6503 eV
Extrapolated to 0K:                 -6.8960217832 H         -187.6503 eV
Total Mermin free energy:           -6.8960217832 H         -187.6503 eV
Force related energy:               -6.8960217832 H         -187.6503 eV

Volume:                              0.238859E+03 au^3   0.353953E+02 A^3
Pressure:                           -0.433576E-05 au    -0.127563E+09 Pa
Maximal force component:             0.152254E-03
Maximal Lattice force component:     0.513750E-02 au
>> Charges saved for restart in charges.bin

--------------------------------------------------------------------------------

***  Geometry step: 79, Lattice step: 2

 iSCC Total electronic   Diff electronic      SCC error    
    1   -0.69928320E+01    0.00000000E+00    0.71913318E-05

Total Energy:                       -6.8960216829 H         -187.6503 eV
Extrapolated to 0K:                 -6.8960216829 H         -187.6503 eV
Total Mermin free energy:           -6.8960216829 H         -187.6503 eV
Force related energy:               -6.8960216829 H         -187.6503 eV

Volume:                              0.238859E+03 au^3   0.353953E+02 A^3
Pressure:                           -0.434824E-05 au    -0.127930E+09 Pa
Maximal force component:             0.242202E-03
Maximal Lattice force component:     0.511115E-02 au
>> Charges saved for restart in charges.bin

--------------------------------------------------------------------------------

***  Geometry step: 80, Lattice step: 2

 iSCC Total electronic   Diff electronic      SCC error    
    1   -0.69928305E+01    0.00000000E+00    0.58185875E-05

Total Energy:                       -6.8960217833 H         -187.6503 eV
Extrapolated to 0K:                 -6.8960217833 H         -187.6503 eV
Total Mermin free energy:           -6.8960217833 H         -187.6503 eV
Force related energy:               -6.8960217833 H         -187.6503 eV

Volume:                              0.238859E+03 au^3   0.353953E+02 A^3
Pressure:                           -0.433612E-05 au    -0.127573E+09 Pa
Maximal force component:             0.154539E-03
Maximal Lattice force component:     0.513683E-02 au
>> Charges saved for restart in charges.bin

--------------------------------------------------------------------------------

***  Geometry step: 81, Lattice step: 2

 iSCC Total electronic   Diff electronic      SCC error    
    1   -0.69928320E+01    0.00000000E+00    0.74848113E-05

Total Energy:                       -6.8960213761 H         -187.6503 eV
Extrapolated to 0K:                 -6.8960213761 H         -187.6503 eV
Total Mermin free energy:           -6.8960213761 H         -187.6503 eV
Force related energy:               -6.8960213761 H         -187.6503 eV

Volume:                              0.238859E+03 au^3   0.353953E+02 A^3
Pressure:                           -0.425662E-05 au    -0.125234E+09 Pa
Maximal force component:             0.472731E-03
Maximal Lattice force component:     0.535275E-02 au
>> Charges saved for restart in charges.bin

--------------------------------------------------------------------------------

***  Geometry step: 82, Lattice step: 2

 iSCC Total electronic   Diff electronic      SCC error    
    1   -0.69928414E+01    0.00000000E+00    0.65758963E-05

Total Energy:                       -6.8960218516 H         -187.6503 eV
Extrapolated to 0K:                 -6.8960218516 H         -187.6503 eV
Total Mermin free energy:           -6.8960218516 H         -187.6503 eV
Force related energy:               -6.8960218516 H         -187.6503 eV

Volume:                              0.238859E+03 au^3   0.353953E+02 A^3
Pressure:                           -0.431658E-05 au    -0.126998E+09 Pa
Maximal force component:             0.919505E-04
Maximal Lattice force component:     0.519573E-02 au
>> Charges saved for restart in charges.bin

--------------------------------------------------------------------------------

***  Geometry step: 83, Lattice step: 2

 iSCC Total electronic   Diff electronic      SCC error    
    1   -0.69928346E+01    0.00000000E+00    0.70893976E-05

Total Energy:                       -6.8960218574 H         -187.6503 eV
Extrapolated to 0K:                 -6.8960218574 H         -187.6503 eV
Total Mermin free energy:           -6.8960218574 H         -187.6503 eV
Force related energy:               -6.8960218574 H         -187.6503 eV

Volume:                              0.238859E+03 au^3   0.353953E+02 A^3
Pressure:                           -0.431805E-05 au    -0.127041E+09 Pa
Maximal force component:             0.970809E-04
Maximal Lattice force component:     0.519494E-02 au
>> Charges saved for restart in charges.bin

--------------------------------------------------------------------------------

***  Geometry step: 84, Lattice step: 2

 iSCC Total electronic   Diff electronic      SCC error    
    1   -0.69928345E+01    0.00000000E+00    0.68680033E-05

Total Energy:                       -6.8960218892 H         -187.6503 eV
Extrapolated to 0K:                 -6.8960218892 H         -187.6503 eV
Total Mermin free energy:           -6.8960218892 H         -187.6503 eV
Force related energy:               -6.8960218892 H         -187.6503 eV

Volume:                              0.238859E+03 au^3   0.353953E+02 A^3
Pressure:                           -0.431726E-05 au    -0.127018E+09 Pa
Maximal force component:             0.132771E-04
Maximal Lattice force component:     0.519532E-02 au
>> Charges saved for restart in charges.bin

--------------------------------------------------------------------------------

***  Geometry step: 85, Lattice step: 2

 iSCC Total electronic   Diff electronic      SCC error    
    1   -0.69928346E+01    0.00000000E+00    0.70203316E-05

Total Energy:                       -6.8960192556 H         -187.6502 eV
Extrapolated to 0K:                 -6.8960192556 H         -187.6502 eV
Total Mermin free energy:           -6.8960192556 H         -187.6502 eV
Force related energy:               -6.8960192556 H         -187.6502 eV

Volume:                              0.238859E+03 au^3   0.353953E+02 A^3
Pressure:                           -0.443564E-05 au    -0.130501E+09 Pa
Maximal force component:             0.115820E-02
Maximal Lattice force component:     0.479971E-02 au
>> Charges saved for restart in charges.bin

[...]
    1   -0.69915415E+01    0.00000000E+00    0.80692200E-07

Total Energy:                       -6.8962794466 H         -187.6573 eV
Extrapolated to 0K:                 -6.8962794466 H         -187.6573 eV
Total Mermin free energy:           -6.8962794466 H         -187.6573 eV
Force related energy:               -6.8962794466 H         -187.6573 eV

Volume:                              0.230386E+03 au^3   0.341397E+02 A^3
Pressure:                           -0.121515E-05 au    -0.357510E+08 Pa
Maximal force component:             0.436916E-03
Maximal Lattice force component:     0.885539E-04 au
>> Charges saved for restart in charges.bin

--------------------------------------------------------------------------------

***  Geometry step: 256, Lattice step: 35

 iSCC Total electronic   Diff electronic      SCC error    
    1   -0.69915415E+01    0.00000000E+00    0.11002825E-07

Total Energy:                       -6.8962798685 H         -187.6573 eV
Extrapolated to 0K:                 -6.8962798685 H         -187.6573 eV
Total Mermin free energy:           -6.8962798685 H         -187.6573 eV
Force related energy:               -6.8962798685 H         -187.6573 eV

Volume:                              0.230386E+03 au^3   0.341397E+02 A^3
Pressure:                           -0.121887E-05 au    -0.358605E+08 Pa
Maximal force component:             0.450937E-05
Maximal Lattice force component:     0.159730E-03 au
>> Charges saved for restart in charges.bin

--------------------------------------------------------------------------------

***  Geometry step: 257, Lattice step: 35

 iSCC Total electronic   Diff electronic      SCC error    
    1   -0.69915415E+01    0.00000000E+00    0.11002825E-07

Total Energy:                       -6.8962798685 H         -187.6573 eV
Extrapolated to 0K:                 -6.8962798685 H         -187.6573 eV
Total Mermin free energy:           -6.8962798685 H         -187.6573 eV
Force related energy:               -6.8962798685 H         -187.6573 eV

Volume:                              0.230386E+03 au^3   0.341397E+02 A^3
Pressure:                           -0.121887E-05 au    -0.358605E+08 Pa
Maximal force component:             0.450937E-05
Maximal Lattice force component:     0.159730E-03 au
>> Charges saved for restart in charges.bin

--------------------------------------------------------------------------------

***  Geometry step: 258, Lattice step: 36

 iSCC Total electronic   Diff electronic      SCC error    
    1   -0.69915415E+01    0.00000000E+00    0.75098472E-05

Total Energy:                       -6.8962798301 H         -187.6573 eV
Extrapolated to 0K:                 -6.8962798301 H         -187.6573 eV
Total Mermin free energy:           -6.8962798301 H         -187.6573 eV
Force related energy:               -6.8962798301 H         -187.6573 eV

Volume:                              0.230338E+03 au^3   0.341326E+02 A^3
Pressure:                           -0.978953E-06 au    -0.288018E+08 Pa
Maximal force component:             0.300253E-04
Maximal Lattice force component:     0.970128E-04 au
>> Charges saved for restart in charges.bin

--------------------------------------------------------------------------------

***  Geometry step: 259, Lattice step: 36

 iSCC Total electronic   Diff electronic      SCC error    
    1   -0.69915453E+01    0.00000000E+00    0.74888303E-05

Total Energy:                       -6.8962797801 H         -187.6573 eV
Extrapolated to 0K:                 -6.8962797801 H         -187.6573 eV
Total Mermin free energy:           -6.8962797801 H         -187.6573 eV
Force related energy:               -6.8962797801 H         -187.6573 eV

Volume:                              0.230338E+03 au^3   0.341326E+02 A^3
Pressure:                           -0.978357E-06 au    -0.287842E+08 Pa
Maximal force component:             0.155963E-03
Maximal Lattice force component:     0.135230E-03 au
>> Charges saved for restart in charges.bin

--------------------------------------------------------------------------------

***  Geometry step: 260, Lattice step: 36

 iSCC Total electronic   Diff electronic      SCC error    
    1   -0.69915453E+01    0.00000000E+00    0.75066174E-05

Total Energy:                       -6.8962798317 H         -187.6573 eV
Extrapolated to 0K:                 -6.8962798317 H         -187.6573 eV
Total Mermin free energy:           -6.8962798317 H         -187.6573 eV
Force related energy:               -6.8962798317 H         -187.6573 eV

Volume:                              0.230338E+03 au^3   0.341326E+02 A^3
Pressure:                           -0.978964E-06 au    -0.288021E+08 Pa
Maximal force component:             0.481831E-05
Maximal Lattice force component:     0.102705E-03 au
>> Charges saved for restart in charges.bin

--------------------------------------------------------------------------------

***  Geometry step: 261, Lattice step: 36

 iSCC Total electronic   Diff electronic      SCC error    
    1   -0.69915453E+01    0.00000000E+00    0.75066174E-05

Total Energy:                       -6.8962798317 H         -187.6573 eV
Extrapolated to 0K:                 -6.8962798317 H         -187.6573 eV
Total Mermin free energy:           -6.8962798317 H         -187.6573 eV
Force related energy:               -6.8962798317 H         -187.6573 eV

Volume:                              0.230338E+03 au^3   0.341326E+02 A^3
Pressure:                           -0.978964E-06 au    -0.288021E+08 Pa
Maximal force component:             0.481831E-05
Maximal Lattice force component:     0.102705E-03 au
>> Charges saved for restart in charges.bin

--------------------------------------------------------------------------------

***  Geometry step: 262, Lattice step: 37

 iSCC Total electronic   Diff electronic      SCC error    
    1   -0.69915453E+01    0.00000000E+00    0.67406670E-05

Total Energy:                       -6.8962797831 H         -187.6573 eV
Extrapolated to 0K:                 -6.8962797831 H         -187.6573 eV
Total Mermin free energy:           -6.8962797831 H         -187.6573 eV
Force related energy:               -6.8962797831 H         -187.6573 eV

Volume:                              0.230358E+03 au^3   0.341355E+02 A^3
Pressure:                            0.326980E-05 au     0.962007E+08 Pa
Maximal force component:             0.132127E-04
Maximal Lattice force component:     0.293741E-03 au
>> Charges saved for restart in charges.bin

--------------------------------------------------------------------------------

***  Geometry step: 263, Lattice step: 37

 iSCC Total electronic   Diff electronic      SCC error    
    1   -0.69918230E+01    0.00000000E+00    0.67458801E-05

Total Energy:                       -6.8962797768 H         -187.6573 eV
Extrapolated to 0K:                 -6.8962797768 H         -187.6573 eV
Total Mermin free energy:           -6.8962797768 H         -187.6573 eV
Force related energy:               -6.8962797768 H         -187.6573 eV

Volume:                              0.230358E+03 au^3   0.341355E+02 A^3
Pressure:                            0.326983E-05 au     0.962018E+08 Pa
Maximal force component:             0.573131E-04
Maximal Lattice force component:     0.278850E-03 au
>> Charges saved for restart in charges.bin

--------------------------------------------------------------------------------

***  Geometry step: 264, Lattice step: 37

 iSCC Total electronic   Diff electronic      SCC error    
    1   -0.69918230E+01    0.00000000E+00    0.67415698E-05

Total Energy:                       -6.8962797833 H         -187.6573 eV
Extrapolated to 0K:                 -6.8962797833 H         -187.6573 eV
Total Mermin free energy:           -6.8962797833 H         -187.6573 eV
Force related energy:               -6.8962797833 H         -187.6573 eV

Volume:                              0.230358E+03 au^3   0.341355E+02 A^3
Pressure:                            0.326979E-05 au     0.962005E+08 Pa
Maximal force component:             0.573091E-05
Maximal Lattice force component:     0.291208E-03 au
>> Charges saved for restart in charges.bin

--------------------------------------------------------------------------------

***  Geometry step: 265, Lattice step: 37

 iSCC Total electronic   Diff electronic      SCC error    
    1   -0.69918230E+01    0.00000000E+00    0.67415698E-05

Total Energy:                       -6.8962797833 H         -187.6573 eV
Extrapolated to 0K:                 -6.8962797833 H         -187.6573 eV
Total Mermin free energy:           -6.8962797833 H         -187.6573 eV
Force related energy:               -6.8962797833 H         -187.6573 eV

Volume:                              0.230358E+03 au^3   0.341355E+02 A^3
Pressure:                            0.326979E-05 au     0.962005E+08 Pa
Maximal force component:             0.573091E-05
Maximal Lattice force component:     0.291208E-03 au
>> Charges saved for restart in charges.bin

--------------------------------------------------------------------------------

***  Geometry step: 266, Lattice step: 38

 iSCC Total electronic   Diff electronic      SCC error    
    1   -0.69918230E+01    0.00000000E+00    0.39264464E-05

Total Energy:                       -6.8962798451 H         -187.6573 eV
Extrapolated to 0K:                 -6.8962798451 H         -187.6573 eV
Total Mermin free energy:           -6.8962798451 H         -187.6573 eV
Force related energy:               -6.8962798451 H         -187.6573 eV

Volume:                              0.230343E+03 au^3   0.341334E+02 A^3
Pressure:                            0.862587E-07 au     0.253782E+07 Pa
Maximal force component:             0.129606E-04
Maximal Lattice force component:     0.118048E-04 au
>> Charges saved for restart in charges.bin

--------------------------------------------------------------------------------

***  Geometry step: 267, Lattice step: 38

 iSCC Total electronic   Diff electronic      SCC error    
    1   -0.69916149E+01    0.00000000E+00    0.39393621E-05

Total Energy:                       -6.8962798393 H         -187.6573 eV
Extrapolated to 0K:                 -6.8962798393 H         -187.6573 eV
Total Mermin free energy:           -6.8962798393 H         -187.6573 eV
Force related energy:               -6.8962798393 H         -187.6573 eV

Volume:                              0.230343E+03 au^3   0.341334E+02 A^3
Pressure:                            0.863143E-07 au     0.253945E+07 Pa
Maximal force component:             0.555944E-04
Maximal Lattice force component:     0.139689E-04 au
>> Charges saved for restart in charges.bin

--------------------------------------------------------------------------------

***  Geometry step: 268, Lattice step: 38

 iSCC Total electronic   Diff electronic      SCC error    
    1   -0.69916149E+01    0.00000000E+00    0.39286606E-05

Total Energy:                       -6.8962798454 H         -187.6573 eV
Extrapolated to 0K:                 -6.8962798454 H         -187.6573 eV
Total Mermin free energy:           -6.8962798454 H         -187.6573 eV
Force related energy:               -6.8962798454 H         -187.6573 eV

Volume:                              0.230343E+03 au^3   0.341334E+02 A^3
Pressure:                            0.862544E-07 au     0.253769E+07 Pa
Maximal force component:             0.583710E-05
Maximal Lattice force component:     0.111643E-04 au
>> Charges saved for restart in charges.bin

--------------------------------------------------------------------------------

***  Geometry step: 269, Lattice step: 38

 iSCC Total electronic   Diff electronic      SCC error    
    1   -0.69916149E+01    0.00000000E+00    0.39286606E-05

Total Energy:                       -6.8962798454 H         -187.6573 eV
Extrapolated to 0K:                 -6.8962798454 H         -187.6573 eV
Total Mermin free energy:           -6.8962798454 H         -187.6573 eV
Force related energy:               -6.8962798454 H         -187.6573 eV

Volume:                              0.230343E+03 au^3   0.341334E+02 A^3
Pressure:                            0.862544E-07 au     0.253769E+07 Pa
Maximal force component:             0.583710E-05
Maximal Lattice force component:     0.111643E-04 au
>> Charges saved for restart in charges.bin

--------------------------------------------------------------------------------

***  Geometry step: 270, Lattice step: 39

 iSCC Total electronic   Diff electronic      SCC error    
    1   -0.69916149E+01    0.00000000E+00    0.17073311E-05

Total Energy:                       -6.8962797936 H         -187.6573 eV
Extrapolated to 0K:                 -6.8962797936 H         -187.6573 eV
Total Mermin free energy:           -6.8962797936 H         -187.6573 eV
Force related energy:               -6.8962797936 H         -187.6573 eV

Volume:                              0.230362E+03 au^3   0.341361E+02 A^3
Pressure:                           -0.273917E-06 au    -0.805890E+07 Pa
Maximal force component:             0.962460E-04
Maximal Lattice force component:     0.212316E-03 au
>> Charges saved for restart in charges.bin

--------------------------------------------------------------------------------

***  Geometry step: 271, Lattice step: 39

 iSCC Total electronic   Diff electronic      SCC error    
    1   -0.69915963E+01    0.00000000E+00    0.16695694E-05

Total Energy:                       -6.8962793564 H         -187.6573 eV
Extrapolated to 0K:                 -6.8962793564 H         -187.6573 eV
Total Mermin free energy:           -6.8962793564 H         -187.6573 eV
Force related energy:               -6.8962793564 H         -187.6573 eV

Volume:                              0.230362E+03 au^3   0.341361E+02 A^3
Pressure:                           -0.271853E-06 au    -0.799819E+07 Pa
Maximal force component:             0.554746E-03
Maximal Lattice force component:     0.606984E-04 au
>> Charges saved for restart in charges.bin

--------------------------------------------------------------------------------

***  Geometry step: 272, Lattice step: 39

 iSCC Total electronic   Diff electronic      SCC error    
    1   -0.69915960E+01    0.00000000E+00    0.17009692E-05

Total Energy:                       -6.8962798067 H         -187.6573 eV
Extrapolated to 0K:                 -6.8962798067 H         -187.6573 eV
Total Mermin free energy:           -6.8962798067 H         -187.6573 eV
Force related energy:               -6.8962798067 H         -187.6573 eV

Volume:                              0.230362E+03 au^3   0.341361E+02 A^3
Pressure:                           -0.274464E-06 au    -0.807500E+07 Pa
Maximal force component:             0.422144E-05
Maximal Lattice force component:     0.189112E-03 au
>> Charges saved for restart in charges.bin

--------------------------------------------------------------------------------

***  Geometry step: 273, Lattice step: 39

 iSCC Total electronic   Diff electronic      SCC error    
    1   -0.69915962E+01    0.00000000E+00    0.17009692E-05

Total Energy:                       -6.8962798067 H         -187.6573 eV
Extrapolated to 0K:                 -6.8962798067 H         -187.6573 eV
Total Mermin free energy:           -6.8962798067 H         -187.6573 eV
Force related energy:               -6.8962798067 H         -187.6573 eV

Volume:                              0.230362E+03 au^3   0.341361E+02 A^3
Pressure:                           -0.274464E-06 au    -0.807500E+07 Pa
Maximal force component:             0.422144E-05
Maximal Lattice force component:     0.189112E-03 au
>> Charges saved for restart in charges.bin

--------------------------------------------------------------------------------

***  Geometry step: 274, Lattice step: 40

 iSCC Total electronic   Diff electronic      SCC error    
    1   -0.69915962E+01    0.00000000E+00    0.38152487E-05

Total Energy:                       -6.8962798342 H         -187.6573 eV
Extrapolated to 0K:                 -6.8962798342 H         -187.6573 eV
Total Mermin free energy:           -6.8962798342 H         -187.6573 eV
Force related energy:               -6.8962798342 H         -187.6573 eV

Volume:                              0.230344E+03 au^3   0.341335E+02 A^3
Pressure:                            0.689984E-07 au     0.203000E+07 Pa
Maximal force component:             0.908885E-04
Maximal Lattice force component:     0.223196E-04 au
>> Charges saved for restart in charges.bin

--------------------------------------------------------------------------------

***  Geometry step: 275, Lattice step: 40

 iSCC Total electronic   Diff electronic      SCC error    
    1   -0.69916140E+01    0.00000000E+00    0.38654809E-05

Total Energy:                       -6.8962794482 H         -187.6573 eV
Extrapolated to 0K:                 -6.8962794482 H         -187.6573 eV
Total Mermin free energy:           -6.8962794482 H         -187.6573 eV
Force related energy:               -6.8962794482 H         -187.6573 eV

Volume:                              0.230344E+03 au^3   0.341335E+02 A^3
Pressure:                            0.732922E-07 au     0.215633E+07 Pa
Maximal force component:             0.522551E-03
Maximal Lattice force component:     0.156178E-03 au
>> Charges saved for restart in charges.bin

--------------------------------------------------------------------------------

***  Geometry step: 276, Lattice step: 40

 iSCC Total electronic   Diff electronic      SCC error    
    1   -0.69916140E+01    0.00000000E+00    0.38218275E-05

Total Energy:                       -6.8962798458 H         -187.6573 eV
Extrapolated to 0K:                 -6.8962798458 H         -187.6573 eV
Total Mermin free energy:           -6.8962798458 H         -187.6573 eV
Force related energy:               -6.8962798458 H         -187.6573 eV

Volume:                              0.230344E+03 au^3   0.341335E+02 A^3
Pressure:                            0.688775E-07 au     0.202645E+07 Pa
Maximal force component:             0.423912E-05
Maximal Lattice force component:     0.542687E-05 au
>> Charges saved for restart in charges.bin

--------------------------------------------------------------------------------

***  Geometry step: 277, Lattice step: 40

 iSCC Total electronic   Diff electronic      SCC error    
    1   -0.69916140E+01    0.00000000E+00    0.38218275E-05

Total Energy:                       -6.8962798458 H         -187.6573 eV
Extrapolated to 0K:                 -6.8962798458 H         -187.6573 eV
Total Mermin free energy:           -6.8962798458 H         -187.6573 eV
Force related energy:               -6.8962798458 H         -187.6573 eV

Volume:                              0.230344E+03 au^3   0.341335E+02 A^3
Pressure:                            0.688775E-07 au     0.202645E+07 Pa
Maximal force component:             0.423912E-05
Maximal Lattice force component:     0.542687E-05 au
>> Charges saved for restart in charges.bin

Geometry converged

--------------------------------------------------------------------------------
DFTB+ running times                          cpu [s]             wall clock [s]
--------------------------------------------------------------------------------
Global initialisation                  +     0.05  (  0.0%)      0.00  (  0.0%)
Pre-SCC initialisation                 +    47.36  (  7.1%)      3.96  (  6.9%)
SCC                                    +   565.16  ( 84.7%)     48.89  ( 85.0%)
Post-SCC processing                    +    54.47  (  8.2%)      4.64  (  8.1%)
Post-geometry optimisation             +     0.04  (  0.0%)      0.00  (  0.0%)
--------------------------------------------------------------------------------
Missing                                +     0.05  (  0.0%)      0.00  (  0.0%)
Total                                  =   667.13  (100.0%)     57.49  (100.0%)
--------------------------------------------------------------------------------
